BEGIN_CFG
 Size
    2
 Supercell
         3.222818      0.000000      0.000000
         0.000000      3.159625      0.000000
         0.000000      0.000000      3.159625
 AtomData:  id type       cartes_x      cartes_y      cartes_z           fx          fy          fz
             1    0       0.000001      0.000001      0.000001     0.000000    0.000003    0.000003
             2    0       1.611410      1.579814      1.579814    -0.000000   -0.000003   -0.000003
 Energy
        -21.828578417043
 PlusStress:  xx          yy          zz          yz          xz          xy
        -1.80354    -0.61038    -0.61038    -0.00000     0.00000    -0.00000
 Feature   from	relaxation_OK
 Feature   min_dist	2.736316
END_CFG

