BEGIN_CFG
 Size
    2
 Supercell
         3.096433      0.000000      0.000000
         0.000000      3.159625      0.000000
         0.000000      0.000000      3.159625
 AtomData:  id type       cartes_x      cartes_y      cartes_z           fx          fy          fz
             1    0       0.000001      0.000001      0.000001     0.000004    0.000003    0.000003
             2    0       1.548218      1.579814      1.579814    -0.000004   -0.000003   -0.000003
 Energy
        -21.827443421610
 PlusStress:  xx          yy          zz          yz          xz          xy
         1.89891     0.66448     0.66448    -0.00000    -0.00000    -0.00000
 Feature   from	relaxation_OK
 Feature   min_dist	2.736316
END_CFG

