BEGIN_CFG
 Size
    2
 Supercell
         3.159625      0.031596      0.000000
         0.031596      3.159625      0.000000
         0.000000      0.000000      3.159625
 AtomData:  id type       cartes_x      cartes_y      cartes_z           fx          fy          fz
             1    0       0.000001      0.000001      0.000001     0.000003    0.000003    0.000003
             2    0       1.595612      1.595612      1.579814    -0.000003   -0.000003   -0.000003
 Energy
        -21.842625636348
 PlusStress:  xx          yy          zz          yz          xz          xy
        -0.00083    -0.00083     0.01498    -0.00000    -0.00000    -0.39567
 Feature   from	relaxation_OK
 Feature   min_dist	2.736316
END_CFG

