BEGIN_CFG
 Size
    2
 Supercell
         3.159625     -0.031596      0.000000
        -0.031596      3.159625      0.000000
         0.000000      0.000000      3.159625
 AtomData:  id type       cartes_x      cartes_y      cartes_z
             1    0       0.000001      0.000001      0.000001
             2    0       1.564016      1.564016      1.579814
 Feature   from	relaxation_OK
 Feature   min_dist	2.736316
END_CFG

