BEGIN_CFG
 Size
    2
 Supercell
         2.852798      0.000000      0.000000
         0.000000      2.852798      0.000000
         0.000000      0.000000      2.852798
 AtomData:  id type       cartes_x      cartes_y      cartes_z           fx          fy          fz
             1    0       0.000000      0.000000      0.000000     0.000000    0.000000   -0.000000
             2    0       1.426399      1.426399      1.426399    -0.000000   -0.000000    0.000000
 Energy
        -20.245390206566
 PlusStress:  xx          yy          zz          yz          xz          xy
        -0.63642    -0.63642    -0.63642     0.00000     0.00000     0.00000
END_CFG

BEGIN_CFG
 Size
    2
 Supercell
         2.884496      0.000000      0.000000
         0.000000      2.884496      0.000000
         0.000000      0.000000      2.884496
 AtomData:  id type       cartes_x      cartes_y      cartes_z           fx          fy          fz
             1    0       0.000000      0.000000      0.000000     0.000000    0.000000    0.000000
             2    0       1.442248      1.442248      1.442248    -0.000000   -0.000000   -0.000000
 Energy
        -20.270714078919
 PlusStress:  xx          yy          zz          yz          xz          xy
         2.65496     2.65496     2.65496     0.00000     0.00000     0.00000
END_CFG

BEGIN_CFG
 Size
    2
 Supercell
         2.916194      0.000000      0.000000
         0.000000      2.916194      0.000000
         0.000000      0.000000      2.916194
 AtomData:  id type       cartes_x      cartes_y      cartes_z           fx          fy          fz
             1    0       0.000000      0.000000      0.000000     0.000000    0.000000    0.000000
             2    0       1.458097      1.458097      1.458097    -0.000000   -0.000000   -0.000000
 Energy
        -20.404181675231
 PlusStress:  xx          yy          zz          yz          xz          xy
         5.59526     5.59526     5.59526     0.00000     0.00000     0.00000
END_CFG

BEGIN_CFG
 Size
    2
 Supercell
         2.947892      0.000000      0.000000
         0.000000      2.947892      0.000000
         0.000000      0.000000      2.947892
 AtomData:  id type       cartes_x      cartes_y      cartes_z           fx          fy          fz
             1    0       0.000000      0.000000      0.000000    -0.000000   -0.000000   -0.000000
             2    0       1.473946      1.473946      1.473946     0.000000    0.000000    0.000000
 Energy
        -20.641730094787
 PlusStress:  xx          yy          zz          yz          xz          xy
         8.96194     8.96194     8.96194    -0.00000    -0.00000     0.00000
END_CFG

BEGIN_CFG
 Size
    2
 Supercell
         2.979589      0.000000      0.000000
         0.000000      2.979589      0.000000
         0.000000      0.000000      2.979589
 AtomData:  id type       cartes_x      cartes_y      cartes_z           fx          fy          fz
             1    0       0.000000      0.000000      0.000000    -0.000000    0.000000   -0.000000
             2    0       1.489794      1.489794      1.489794     0.000000   -0.000000    0.000000
 Energy
        -20.961792128192
 PlusStress:  xx          yy          zz          yz          xz          xy
        10.49766    10.49766    10.49766     0.00000    -0.00000     0.00000
END_CFG

BEGIN_CFG
 Size
    2
 Supercell
         3.011287      0.000000      0.000000
         0.000000      3.011287      0.000000
         0.000000      0.000000      3.011287
 AtomData:  id type       cartes_x      cartes_y      cartes_z           fx          fy          fz
             1    0       0.000000      0.000000      0.000000     0.000000    0.000000    0.000000
             2    0       1.505643      1.505643      1.505643    -0.000000   -0.000000   -0.000000
 Energy
        -21.274183924061
 PlusStress:  xx          yy          zz          yz          xz          xy
         8.57186     8.57186     8.57186    -0.00000    -0.00000    -0.00000
END_CFG

BEGIN_CFG
 Size
    2
 Supercell
         3.042985      0.000000      0.000000
         0.000000      3.042985      0.000000
         0.000000      0.000000      3.042985
 AtomData:  id type       cartes_x      cartes_y      cartes_z           fx          fy          fz
             1    0       0.000000      0.000000      0.000000    -0.000000    0.000000    0.000000
             2    0       1.521492      1.521492      1.521492     0.000000    0.000000    0.000000
 Energy
        -21.505067546243
 PlusStress:  xx          yy          zz          yz          xz          xy
         6.32934     6.32934     6.32934     0.00000    -0.00000    -0.00000
END_CFG

BEGIN_CFG
 Size
    2
 Supercell
         3.074683      0.000000      0.000000
         0.000000      3.074683      0.000000
         0.000000      0.000000      3.074683
 AtomData:  id type       cartes_x      cartes_y      cartes_z           fx          fy          fz
             1    0       0.000000      0.000000      0.000000     0.000000    0.000000    0.000000
             2    0       1.537341      1.537341      1.537341    -0.000000    0.000000   -0.000000
 Energy
        -21.671979817400
 PlusStress:  xx          yy          zz          yz          xz          xy
         4.43084     4.43084     4.43084     0.00000     0.00000     0.00000
END_CFG

BEGIN_CFG
 Size
    2
 Supercell
         3.106380      0.000000      0.000000
         0.000000      3.106380      0.000000
         0.000000      0.000000      3.106380
 AtomData:  id type       cartes_x      cartes_y      cartes_z           fx          fy          fz
             1    0       0.000000      0.000000      0.000000    -0.000000   -0.000000    0.000000
             2    0       1.553190      1.553190      1.553190     0.000000    0.000000   -0.000000
 Energy
        -21.781092072208
 PlusStress:  xx          yy          zz          yz          xz          xy
         2.68124     2.68124     2.68124     0.00000    -0.00000    -0.00000
END_CFG

BEGIN_CFG
 Size
    2
 Supercell
         3.138078      0.000000      0.000000
         0.000000      3.138078      0.000000
         0.000000      0.000000      3.138078
 AtomData:  id type       cartes_x      cartes_y      cartes_z           fx          fy          fz
             1    0       0.000000      0.000000      0.000000     0.000000    0.000000    0.000000
             2    0       1.569039      1.569039      1.569039    -0.000000    0.000000    0.000000
 Energy
        -21.837648033344
 PlusStress:  xx          yy          zz          yz          xz          xy
         1.04504     1.04504     1.04504     0.00000     0.00000    -0.00000
END_CFG

BEGIN_CFG
 Size
    2
 Supercell
         3.169776      0.000000      0.000000
         0.000000      3.169776      0.000000
         0.000000      0.000000      3.169776
 AtomData:  id type       cartes_x      cartes_y      cartes_z           fx          fy          fz
             1    0       0.000000      0.000000      0.000000     0.000000    0.000000    0.000000
             2    0       1.584888      1.584888      1.584888     0.000000    0.000000    0.000000
 Energy
        -21.845539895337
 PlusStress:  xx          yy          zz          yz          xz          xy
        -0.51232    -0.51232    -0.51232     0.00000    -0.00000    -0.00000
END_CFG

BEGIN_CFG
 Size
    2
 Supercell
         3.201474      0.000000      0.000000
         0.000000      3.201474      0.000000
         0.000000      0.000000      3.201474
 AtomData:  id type       cartes_x      cartes_y      cartes_z           fx          fy          fz
             1    0       0.000000      0.000000      0.000000    -0.000000    0.000000   -0.000000
             2    0       1.600737      1.600737      1.600737     0.000000    0.000000    0.000000
 Energy
        -21.807967985194
 PlusStress:  xx          yy          zz          yz          xz          xy
        -1.99308    -1.99308    -1.99308     0.00000     0.00000    -0.00000
END_CFG

BEGIN_CFG
 Size
    2
 Supercell
         3.233171      0.000000      0.000000
         0.000000      3.233171      0.000000
         0.000000      0.000000      3.233171
 AtomData:  id type       cartes_x      cartes_y      cartes_z           fx          fy          fz
             1    0       0.000000      0.000000      0.000000    -0.000000   -0.000000   -0.000000
             2    0       1.616586      1.616586      1.616586     0.000000    0.000000    0.000000
 Energy
        -21.728411496566
 PlusStress:  xx          yy          zz          yz          xz          xy
        -3.37363    -3.37363    -3.37363     0.00000     0.00000     0.00000
END_CFG

BEGIN_CFG
 Size
    2
 Supercell
         3.264869      0.000000      0.000000
         0.000000      3.264869      0.000000
         0.000000      0.000000      3.264869
 AtomData:  id type       cartes_x      cartes_y      cartes_z           fx          fy          fz
             1    0       0.000000      0.000000      0.000000    -0.000000    0.000000    0.000000
             2    0       1.632435      1.632435      1.632435     0.000000   -0.000000    0.000000
 Energy
        -21.610954612289
 PlusStress:  xx          yy          zz          yz          xz          xy
        -4.63419    -4.63419    -4.63419    -0.00000     0.00000     0.00000
END_CFG

BEGIN_CFG
 Size
    2
 Supercell
         3.296567      0.000000      0.000000
         0.000000      3.296567      0.000000
         0.000000      0.000000      3.296567
 AtomData:  id type       cartes_x      cartes_y      cartes_z           fx          fy          fz
             1    0       0.000000      0.000000      0.000000     0.000000    0.000000   -0.000000
             2    0       1.648284      1.648284      1.648284    -0.000000   -0.000000    0.000000
 Energy
        -21.459759170241
 PlusStress:  xx          yy          zz          yz          xz          xy
        -5.78426    -5.78426    -5.78426    -0.00000    -0.00000    -0.00000
END_CFG

BEGIN_CFG
 Size
    2
 Supercell
         3.328265      0.000000      0.000000
         0.000000      3.328265      0.000000
         0.000000      0.000000      3.328265
 AtomData:  id type       cartes_x      cartes_y      cartes_z           fx          fy          fz
             1    0       0.000000      0.000000      0.000000    -0.000000    0.000000    0.000000
             2    0       1.664133      1.664133      1.664133     0.000000    0.000000    0.000000
 Energy
        -21.278114950684
 PlusStress:  xx          yy          zz          yz          xz          xy
        -6.86438    -6.86438    -6.86438     0.00000     0.00000     0.00000
END_CFG

BEGIN_CFG
 Size
    2
 Supercell
         3.359962      0.000000      0.000000
         0.000000      3.359962      0.000000
         0.000000      0.000000      3.359962
 AtomData:  id type       cartes_x      cartes_y      cartes_z           fx          fy          fz
             1    0       0.000000      0.000000      0.000000    -0.000000    0.000000    0.000000
             2    0       1.679981      1.679981      1.679981     0.000000   -0.000000    0.000000
 Energy
        -21.067925172168
 PlusStress:  xx          yy          zz          yz          xz          xy
        -7.91885    -7.91885    -7.91885     0.00000     0.00000     0.00000
END_CFG

BEGIN_CFG
 Size
    2
 Supercell
         3.391660      0.000000      0.000000
         0.000000      3.391660      0.000000
         0.000000      0.000000      3.391660
 AtomData:  id type       cartes_x      cartes_y      cartes_z           fx          fy          fz
             1    0       0.000000      0.000000      0.000000     0.000000   -0.000000    0.000000
             2    0       1.695830      1.695830      1.695830     0.000000    0.000000    0.000000
 Energy
        -20.830250689972
 PlusStress:  xx          yy          zz          yz          xz          xy
        -8.94927    -8.94927    -8.94927     0.00000     0.00000    -0.00000
END_CFG

BEGIN_CFG
 Size
    2
 Supercell
         3.423358      0.000000      0.000000
         0.000000      3.423358      0.000000
         0.000000      0.000000      3.423358
 AtomData:  id type       cartes_x      cartes_y      cartes_z           fx          fy          fz
             1    0       0.000000      0.000000      0.000000     0.000000   -0.000000    0.000000
             2    0       1.711679      1.711679      1.711679    -0.000000    0.000000   -0.000000
 Energy
        -20.567306587645
 PlusStress:  xx          yy          zz          yz          xz          xy
        -9.86185    -9.86185    -9.86185     0.00000     0.00000     0.00000
END_CFG

BEGIN_CFG
 Size
    2
 Supercell
         3.455056      0.000000      0.000000
         0.000000      3.455056      0.000000
         0.000000      0.000000      3.455056
 AtomData:  id type       cartes_x      cartes_y      cartes_z           fx          fy          fz
             1    0       0.000000      0.000000      0.000000    -0.000000   -0.000000   -0.000000
             2    0       1.727528      1.727528      1.727528     0.000000    0.000000    0.000000
 Energy
        -20.285698223338
 PlusStress:  xx          yy          zz          yz          xz          xy
       -10.42119   -10.42119   -10.42119     0.00000     0.00000     0.00000
END_CFG

BEGIN_CFG
 Size
    2
 Supercell
         3.486753      0.000000      0.000000
         0.000000      3.486753      0.000000
         0.000000      0.000000      3.486753
 AtomData:  id type       cartes_x      cartes_y      cartes_z           fx          fy          fz
             1    0       0.000000      0.000000      0.000000    -0.000000    0.000000    0.000000
             2    0       1.743377      1.743377      1.743377     0.000000    0.000000    0.000000
 Energy
        -20.000540231333
 PlusStress:  xx          yy          zz          yz          xz          xy
       -10.22954   -10.22954   -10.22954     0.00000     0.00000    -0.00000
END_CFG

