BEGIN_CFG
 Size
    2
 Supercell
         3.159625     -0.000000     -0.000000
        -0.000000      3.159625     -0.000000
        -0.000000     -0.000000      3.159625
 AtomData:  id type       cartes_x      cartes_y      cartes_z           fx          fy          fz
             1    0       0.000001      0.000001      0.000001     0.000000    0.000000    0.000000
             2    0       1.579814      1.579814      1.579814    -0.000000   -0.000000   -0.000000
 Energy
        -21.846588461571
 PlusStress:  xx          yy          zz          yz          xz          xy
        -0.00000    -0.00000    -0.00000     0.00000     0.00000     0.00000
 Feature   from	relaxation_OK
 Feature   min_dist	2.736316
END_CFG

