BEGIN_CFG
 Size
    2
 Supercell
         3.221681      0.000000      0.000000
         0.000000      3.158511      0.000000
         0.000000      0.000000      3.158511
 AtomData:  id type       cartes_x      cartes_y      cartes_z           fx          fy          fz
             1    0       0.000001      0.000001      0.000001    -0.000003   -0.000003   -0.000003
             2    0       1.610841      1.579256      1.579256     0.000003    0.000003    0.000003
 Energy
        -21.826954846157
 PlusStress:  xx          yy          zz          yz          xz          xy
        -1.80230    -0.66307    -0.66307    -0.00000    -0.00000    -0.00000
 Feature   from	relaxation_OK
 Feature   min_dist	2.735351
END_CFG

