BEGIN_CFG
 Size
    2
 Supercell
         3.095341      0.000000      0.000000
         0.000000      3.158511      0.000000
         0.000000      0.000000      3.158511
 AtomData:  id type       cartes_x      cartes_y      cartes_z           fx          fy          fz
             1    0       0.000001      0.000001      0.000001    -0.000003   -0.000003   -0.000003
             2    0       1.547671      1.579256      1.579256     0.000003    0.000003    0.000003
 Energy
        -21.825739555179
 PlusStress:  xx          yy          zz          yz          xz          xy
         1.91027     0.73259     0.73259    -0.00000    -0.00000    -0.00000
 Feature   from	relaxation_OK
 Feature   min_dist	2.735351
END_CFG

