BEGIN_CFG
 Size
    2
 Supercell
         3.158511      0.031585      0.000000
         0.031585      3.158511      0.000000
         0.000000      0.000000      3.158511
 AtomData:  id type       cartes_x      cartes_y      cartes_z           fx          fy          fz
             1    0       0.000001      0.000001      0.000001    -0.000000   -0.000000   -0.000003
             2    0       1.595049      1.595049      1.579256     0.000000    0.000000    0.000003
 Energy
        -21.841581539345
 PlusStress:  xx          yy          zz          yz          xz          xy
         0.01634     0.01634     0.01038    -0.00000    -0.00000    -0.33990
 Feature   from	relaxation_OK
 Feature   min_dist	2.735351
END_CFG

