BEGIN_CFG
 Size
    2
 Supercell
         3.158511     -0.031585      0.000000
        -0.031585      3.158511      0.000000
         0.000000      0.000000      3.158511
 AtomData:  id type       cartes_x      cartes_y      cartes_z
             1    0       0.000001      0.000001      0.000001
             2    0       1.563463      1.563463      1.579256
 Feature   from	relaxation_OK
 Feature   min_dist	2.735351
END_CFG

