BEGIN_CFG
 Size
    2
 Supercell
         3.159746     -0.031597      0.000000
        -0.031597      3.159746      0.000000
         0.000000      0.000000      3.159746
 AtomData:  id type       cartes_x      cartes_y      cartes_z           fx          fy          fz
             1    0       0.000001      0.000001      0.000001    -0.000003   -0.000003   -0.000000
             2    0       1.564075      1.564075      1.579874     0.000003    0.000003    0.000000
 Energy
        -21.843043583141
 PlusStress:  xx          yy          zz          yz          xz          xy
         0.00456     0.00456     0.00886     0.00000     0.00000     0.41646
 Feature   from	relaxation_OK
 Feature   min_dist	2.736420
END_CFG

