
0.000000000 3.158511000 xlo xhi
0.000000000 3.158511000 ylo yhi
0.000000000 3.158511000 zlo zhi
0.000000000 0.000000000 0.000000000 xy xz yz

2 atoms

1 atom types

Atoms

     1     1          0.00000100          0.00000100          0.00000100
     2     1          1.57925600          1.57925600          1.57925600
