BEGIN_CFG
 Size
    2
 Supercell
         2.852798      0.000000      0.000000
         0.000000      2.852798      0.000000
         0.000000      0.000000      2.852798
 AtomData:  id type       cartes_x      cartes_y      cartes_z           fx          fy          fz
             1    0       0.000000      0.000000      0.000000     0.000000    0.000000    0.000000
             2    0       1.426399      1.426399      1.426399    -0.000000   -0.000000   -0.000000
 Energy
        -18.736333513109
 PlusStress:  xx          yy          zz          yz          xz          xy
        21.84497    21.84497    21.84497    -0.00000     0.00000     0.00000
END_CFG

BEGIN_CFG
 Size
    2
 Supercell
         2.884496      0.000000      0.000000
         0.000000      2.884496      0.000000
         0.000000      0.000000      2.884496
 AtomData:  id type       cartes_x      cartes_y      cartes_z           fx          fy          fz
             1    0       0.000000      0.000000      0.000000     0.000000    0.000000    0.000000
             2    0       1.442248      1.442248      1.442248    -0.000000   -0.000000   -0.000000
 Energy
        -19.415847224263
 PlusStress:  xx          yy          zz          yz          xz          xy
        19.28055    19.28055    19.28055    -0.00000     0.00000     0.00000
END_CFG

BEGIN_CFG
 Size
    2
 Supercell
         2.916194      0.000000      0.000000
         0.000000      2.916194      0.000000
         0.000000      0.000000      2.916194
 AtomData:  id type       cartes_x      cartes_y      cartes_z           fx          fy          fz
             1    0       0.000000      0.000000      0.000000     0.000000    0.000000    0.000000
             2    0       1.458097      1.458097      1.458097    -0.000000   -0.000000   -0.000000
 Energy
        -20.005860923572
 PlusStress:  xx          yy          zz          yz          xz          xy
        16.70433    16.70433    16.70433    -0.00000     0.00000     0.00000
END_CFG

BEGIN_CFG
 Size
    2
 Supercell
         2.947892      0.000000      0.000000
         0.000000      2.947892      0.000000
         0.000000      0.000000      2.947892
 AtomData:  id type       cartes_x      cartes_y      cartes_z           fx          fy          fz
             1    0       0.000000      0.000000      0.000000    -0.000000   -0.000000   -0.000000
             2    0       1.473946      1.473946      1.473946     0.000000    0.000000    0.000000
 Energy
        -20.507264219275
 PlusStress:  xx          yy          zz          yz          xz          xy
        14.21623    14.21623    14.21623    -0.00000     0.00000     0.00000
END_CFG

BEGIN_CFG
 Size
    2
 Supercell
         2.979589      0.000000      0.000000
         0.000000      2.979589      0.000000
         0.000000      0.000000      2.979589
 AtomData:  id type       cartes_x      cartes_y      cartes_z           fx          fy          fz
             1    0       0.000000      0.000000      0.000000    -0.000000    0.000000    0.000000
             2    0       1.489794      1.489794      1.489794     0.000000   -0.000000   -0.000000
 Energy
        -20.922700594853
 PlusStress:  xx          yy          zz          yz          xz          xy
        11.63522    11.63522    11.63522     0.00000     0.00000    -0.00000
END_CFG

BEGIN_CFG
 Size
    2
 Supercell
         3.011287      0.000000      0.000000
         0.000000      3.011287      0.000000
         0.000000      0.000000      3.011287
 AtomData:  id type       cartes_x      cartes_y      cartes_z           fx          fy          fz
             1    0       0.000000      0.000000      0.000000    -0.000000   -0.000000   -0.000000
             2    0       1.505643      1.505643      1.505643     0.000000    0.000000    0.000000
 Energy
        -21.246130619830
 PlusStress:  xx          yy          zz          yz          xz          xy
         8.63719     8.63719     8.63719    -0.00000     0.00000     0.00000
END_CFG

BEGIN_CFG
 Size
    2
 Supercell
         3.042985      0.000000      0.000000
         0.000000      3.042985      0.000000
         0.000000      0.000000      3.042985
 AtomData:  id type       cartes_x      cartes_y      cartes_z           fx          fy          fz
             1    0       0.000000      0.000000      0.000000     0.000000    0.000000    0.000000
             2    0       1.521492      1.521492      1.521492    -0.000000    0.000000    0.000000
 Energy
        -21.482680413064
 PlusStress:  xx          yy          zz          yz          xz          xy
         6.57852     6.57852     6.57852     0.00000    -0.00000     0.00000
END_CFG

BEGIN_CFG
 Size
    2
 Supercell
         3.074683      0.000000      0.000000
         0.000000      3.074683      0.000000
         0.000000      0.000000      3.074683
 AtomData:  id type       cartes_x      cartes_y      cartes_z           fx          fy          fz
             1    0       0.000000      0.000000      0.000000    -0.000000    0.000000    0.000000
             2    0       1.537341      1.537341      1.537341     0.000000   -0.000000   -0.000000
 Energy
        -21.658162562746
 PlusStress:  xx          yy          zz          yz          xz          xy
         4.70886     4.70886     4.70886    -0.00000    -0.00000     0.00000
END_CFG

BEGIN_CFG
 Size
    2
 Supercell
         3.106380      0.000000      0.000000
         0.000000      3.106380      0.000000
         0.000000      0.000000      3.106380
 AtomData:  id type       cartes_x      cartes_y      cartes_z           fx          fy          fz
             1    0       0.000000      0.000000      0.000000     0.000000    0.000000    0.000000
             2    0       1.553190      1.553190      1.553190     0.000000   -0.000000    0.000000
 Energy
        -21.774583174502
 PlusStress:  xx          yy          zz          yz          xz          xy
         2.86252     2.86252     2.86252     0.00000     0.00000     0.00000
END_CFG

BEGIN_CFG
 Size
    2
 Supercell
         3.138078      0.000000      0.000000
         0.000000      3.138078      0.000000
         0.000000      0.000000      3.138078
 AtomData:  id type       cartes_x      cartes_y      cartes_z           fx          fy          fz
             1    0       0.000000      0.000000      0.000000    -0.000000    0.000000   -0.000000
             2    0       1.569039      1.569039      1.569039     0.000000   -0.000000    0.000000
 Energy
        -21.834499314212
 PlusStress:  xx          yy          zz          yz          xz          xy
         1.08485     1.08485     1.08485     0.00000    -0.00000    -0.00000
END_CFG

BEGIN_CFG
 Size
    2
 Supercell
         3.169776      0.000000      0.000000
         0.000000      3.169776      0.000000
         0.000000      0.000000      3.169776
 AtomData:  id type       cartes_x      cartes_y      cartes_z           fx          fy          fz
             1    0       0.000000      0.000000      0.000000    -0.000000    0.000000   -0.000000
             2    0       1.584888      1.584888      1.584888     0.000000   -0.000000    0.000000
 Energy
        -21.841908198768
 PlusStress:  xx          yy          zz          yz          xz          xy
        -0.57228    -0.57228    -0.57228    -0.00000    -0.00000     0.00000
END_CFG

BEGIN_CFG
 Size
    2
 Supercell
         3.201474      0.000000      0.000000
         0.000000      3.201474      0.000000
         0.000000      0.000000      3.201474
 AtomData:  id type       cartes_x      cartes_y      cartes_z           fx          fy          fz
             1    0       0.000000      0.000000      0.000000    -0.000000    0.000000    0.000000
             2    0       1.600737      1.600737      1.600737     0.000000    0.000000    0.000000
 Energy
        -21.802071219149
 PlusStress:  xx          yy          zz          yz          xz          xy
        -2.07082    -2.07082    -2.07082     0.00000    -0.00000     0.00000
END_CFG

BEGIN_CFG
 Size
    2
 Supercell
         3.233171      0.000000      0.000000
         0.000000      3.233171      0.000000
         0.000000      0.000000      3.233171
 AtomData:  id type       cartes_x      cartes_y      cartes_z           fx          fy          fz
             1    0       0.000000      0.000000      0.000000     0.000000    0.000000    0.000000
             2    0       1.616586      1.616586      1.616586     0.000000    0.000000    0.000000
 Energy
        -21.720884506119
 PlusStress:  xx          yy          zz          yz          xz          xy
        -3.39647    -3.39647    -3.39647     0.00000     0.00000     0.00000
END_CFG

BEGIN_CFG
 Size
    2
 Supercell
         3.264869      0.000000      0.000000
         0.000000      3.264869      0.000000
         0.000000      0.000000      3.264869
 AtomData:  id type       cartes_x      cartes_y      cartes_z           fx          fy          fz
             1    0       0.000000      0.000000      0.000000     0.000000    0.000000    0.000000
             2    0       1.632435      1.632435      1.632435     0.000000    0.000000    0.000000
 Energy
        -21.604103941940
 PlusStress:  xx          yy          zz          yz          xz          xy
        -4.56048    -4.56048    -4.56048    -0.00000    -0.00000    -0.00000
END_CFG

BEGIN_CFG
 Size
    2
 Supercell
         3.296567      0.000000      0.000000
         0.000000      3.296567      0.000000
         0.000000      0.000000      3.296567
 AtomData:  id type       cartes_x      cartes_y      cartes_z           fx          fy          fz
             1    0       0.000000      0.000000      0.000000     0.000000    0.000000    0.000000
             2    0       1.648284      1.648284      1.648284     0.000000    0.000000    0.000000
 Energy
        -21.456688227226
 PlusStress:  xx          yy          zz          yz          xz          xy
        -5.59441    -5.59441    -5.59441     0.00000     0.00000     0.00000
END_CFG

BEGIN_CFG
 Size
    2
 Supercell
         3.328265      0.000000      0.000000
         0.000000      3.328265      0.000000
         0.000000      0.000000      3.328265
 AtomData:  id type       cartes_x      cartes_y      cartes_z           fx          fy          fz
             1    0       0.000000      0.000000      0.000000    -0.000000    0.000000    0.000000
             2    0       1.664133      1.664133      1.664133     0.000000    0.000000    0.000000
 Energy
        -21.282364317974
 PlusStress:  xx          yy          zz          yz          xz          xy
        -6.54037    -6.54037    -6.54037    -0.00000    -0.00000     0.00000
END_CFG

BEGIN_CFG
 Size
    2
 Supercell
         3.359962      0.000000      0.000000
         0.000000      3.359962      0.000000
         0.000000      0.000000      3.359962
 AtomData:  id type       cartes_x      cartes_y      cartes_z           fx          fy          fz
             1    0       0.000000      0.000000      0.000000     0.000000    0.000000    0.000000
             2    0       1.679981      1.679981      1.679981     0.000000    0.000000    0.000000
 Energy
        -21.083584738984
 PlusStress:  xx          yy          zz          yz          xz          xy
        -7.43581    -7.43581    -7.43581    -0.00000     0.00000    -0.00000
END_CFG

BEGIN_CFG
 Size
    2
 Supercell
         3.391660      0.000000      0.000000
         0.000000      3.391660      0.000000
         0.000000      0.000000      3.391660
 AtomData:  id type       cartes_x      cartes_y      cartes_z           fx          fy          fz
             1    0       0.000000      0.000000      0.000000     0.000000    0.000000    0.000000
             2    0       1.695830      1.695830      1.695830     0.000000    0.000000    0.000000
 Energy
        -20.861976280271
 PlusStress:  xx          yy          zz          yz          xz          xy
        -8.29111    -8.29111    -8.29111     0.00000     0.00000     0.00000
END_CFG

BEGIN_CFG
 Size
    2
 Supercell
         3.423358      0.000000      0.000000
         0.000000      3.423358      0.000000
         0.000000      0.000000      3.423358
 AtomData:  id type       cartes_x      cartes_y      cartes_z           fx          fy          fz
             1    0       0.000000      0.000000      0.000000    -0.000000    0.000000    0.000000
             2    0       1.711679      1.711679      1.711679     0.000000    0.000000   -0.000000
 Energy
        -20.619595029412
 PlusStress:  xx          yy          zz          yz          xz          xy
        -9.05664    -9.05664    -9.05664     0.00000     0.00000    -0.00000
END_CFG

BEGIN_CFG
 Size
    2
 Supercell
         3.455056      0.000000      0.000000
         0.000000      3.455056      0.000000
         0.000000      0.000000      3.455056
 AtomData:  id type       cartes_x      cartes_y      cartes_z           fx          fy          fz
             1    0       0.000000      0.000000      0.000000    -0.000000    0.000000    0.000000
             2    0       1.727528      1.727528      1.727528     0.000000    0.000000    0.000000
 Energy
        -20.361134154647
 PlusStress:  xx          yy          zz          yz          xz          xy
        -9.57835    -9.57835    -9.57835     0.00000     0.00000     0.00000
END_CFG

BEGIN_CFG
 Size
    2
 Supercell
         3.486753      0.000000      0.000000
         0.000000      3.486753      0.000000
         0.000000      0.000000      3.486753
 AtomData:  id type       cartes_x      cartes_y      cartes_z           fx          fy          fz
             1    0       0.000000      0.000000      0.000000     0.000000    0.000000    0.000000
             2    0       1.743377      1.743377      1.743377     0.000000    0.000000    0.000000
 Energy
        -20.097382220258
 PlusStress:  xx          yy          zz          yz          xz          xy
        -9.54876    -9.54876    -9.54876    -0.00000     0.00000     0.00000
END_CFG

