BEGIN_CFG
 Size
    2
 Supercell
         2.852798      0.000000      0.000000
         0.000000      2.852798      0.000000
         0.000000      0.000000      2.852798
 AtomData:  direct_x direct_y direct_z
                 0.0      0.0      0.0
                 0.5      0.5      0.5
END_CFG

BEGIN_CFG
 Size
    2
 Supercell
         2.884496      0.000000      0.000000
         0.000000      2.884496      0.000000
         0.000000      0.000000      2.884496
 AtomData:  direct_x direct_y direct_z
                 0.0      0.0      0.0
                 0.5      0.5      0.5
END_CFG

BEGIN_CFG
 Size
    2
 Supercell
         2.916194      0.000000      0.000000
         0.000000      2.916194      0.000000
         0.000000      0.000000      2.916194
 AtomData:  direct_x direct_y direct_z
                 0.0      0.0      0.0
                 0.5      0.5      0.5
END_CFG

BEGIN_CFG
 Size
    2
 Supercell
         2.947892      0.000000      0.000000
         0.000000      2.947892      0.000000
         0.000000      0.000000      2.947892
 AtomData:  direct_x direct_y direct_z
                 0.0      0.0      0.0
                 0.5      0.5      0.5
END_CFG

BEGIN_CFG
 Size
    2
 Supercell
         2.979589      0.000000      0.000000
         0.000000      2.979589      0.000000
         0.000000      0.000000      2.979589
 AtomData:  direct_x direct_y direct_z
                 0.0      0.0      0.0
                 0.5      0.5      0.5
END_CFG

BEGIN_CFG
 Size
    2
 Supercell
         3.011287      0.000000      0.000000
         0.000000      3.011287      0.000000
         0.000000      0.000000      3.011287
 AtomData:  direct_x direct_y direct_z
                 0.0      0.0      0.0
                 0.5      0.5      0.5
END_CFG

BEGIN_CFG
 Size
    2
 Supercell
         3.042985      0.000000      0.000000
         0.000000      3.042985      0.000000
         0.000000      0.000000      3.042985
 AtomData:  direct_x direct_y direct_z
                 0.0      0.0      0.0
                 0.5      0.5      0.5
END_CFG

BEGIN_CFG
 Size
    2
 Supercell
         3.074683      0.000000      0.000000
         0.000000      3.074683      0.000000
         0.000000      0.000000      3.074683
 AtomData:  direct_x direct_y direct_z
                 0.0      0.0      0.0
                 0.5      0.5      0.5
END_CFG

BEGIN_CFG
 Size
    2
 Supercell
         3.106380      0.000000      0.000000
         0.000000      3.106380      0.000000
         0.000000      0.000000      3.106380
 AtomData:  direct_x direct_y direct_z
                 0.0      0.0      0.0
                 0.5      0.5      0.5
END_CFG

BEGIN_CFG
 Size
    2
 Supercell
         3.138078      0.000000      0.000000
         0.000000      3.138078      0.000000
         0.000000      0.000000      3.138078
 AtomData:  direct_x direct_y direct_z
                 0.0      0.0      0.0
                 0.5      0.5      0.5
END_CFG

BEGIN_CFG
 Size
    2
 Supercell
         3.169776      0.000000      0.000000
         0.000000      3.169776      0.000000
         0.000000      0.000000      3.169776
 AtomData:  direct_x direct_y direct_z
                 0.0      0.0      0.0
                 0.5      0.5      0.5
END_CFG

BEGIN_CFG
 Size
    2
 Supercell
         3.201474      0.000000      0.000000
         0.000000      3.201474      0.000000
         0.000000      0.000000      3.201474
 AtomData:  direct_x direct_y direct_z
                 0.0      0.0      0.0
                 0.5      0.5      0.5
END_CFG

BEGIN_CFG
 Size
    2
 Supercell
         3.233171      0.000000      0.000000
         0.000000      3.233171      0.000000
         0.000000      0.000000      3.233171
 AtomData:  direct_x direct_y direct_z
                 0.0      0.0      0.0
                 0.5      0.5      0.5
END_CFG

BEGIN_CFG
 Size
    2
 Supercell
         3.264869      0.000000      0.000000
         0.000000      3.264869      0.000000
         0.000000      0.000000      3.264869
 AtomData:  direct_x direct_y direct_z
                 0.0      0.0      0.0
                 0.5      0.5      0.5
END_CFG

BEGIN_CFG
 Size
    2
 Supercell
         3.296567      0.000000      0.000000
         0.000000      3.296567      0.000000
         0.000000      0.000000      3.296567
 AtomData:  direct_x direct_y direct_z
                 0.0      0.0      0.0
                 0.5      0.5      0.5
END_CFG

BEGIN_CFG
 Size
    2
 Supercell
         3.328265      0.000000      0.000000
         0.000000      3.328265      0.000000
         0.000000      0.000000      3.328265
 AtomData:  direct_x direct_y direct_z
                 0.0      0.0      0.0
                 0.5      0.5      0.5
END_CFG

BEGIN_CFG
 Size
    2
 Supercell
         3.359962      0.000000      0.000000
         0.000000      3.359962      0.000000
         0.000000      0.000000      3.359962
 AtomData:  direct_x direct_y direct_z
                 0.0      0.0      0.0
                 0.5      0.5      0.5
END_CFG

BEGIN_CFG
 Size
    2
 Supercell
         3.391660      0.000000      0.000000
         0.000000      3.391660      0.000000
         0.000000      0.000000      3.391660
 AtomData:  direct_x direct_y direct_z
                 0.0      0.0      0.0
                 0.5      0.5      0.5
END_CFG

BEGIN_CFG
 Size
    2
 Supercell
         3.423358      0.000000      0.000000
         0.000000      3.423358      0.000000
         0.000000      0.000000      3.423358
 AtomData:  direct_x direct_y direct_z
                 0.0      0.0      0.0
                 0.5      0.5      0.5
END_CFG

BEGIN_CFG
 Size
    2
 Supercell
         3.455056      0.000000      0.000000
         0.000000      3.455056      0.000000
         0.000000      0.000000      3.455056
 AtomData:  direct_x direct_y direct_z
                 0.0      0.0      0.0
                 0.5      0.5      0.5
END_CFG

BEGIN_CFG
 Size
    2
 Supercell
         3.486753      0.000000      0.000000
         0.000000      3.486753      0.000000
         0.000000      0.000000      3.486753
 AtomData:  direct_x direct_y direct_z
                 0.0      0.0      0.0
                 0.5      0.5      0.5
END_CFG

