BEGIN_CFG
 Size
    2
 Supercell
         3.169776      0.000000      0.000000
         0.000000      3.169776      0.000000
         0.000000      0.000000      3.169776
 AtomData:  id type       cartes_x      cartes_y      cartes_z
             1    0       0.000000      0.000000      0.000000
             2    0       1.584890      1.584890      1.584890
END_CFG

