BEGIN_CFG
 Size
    2
 Supercell
         2.852798      0.000000      0.000000
         0.000000      2.852798      0.000000
         0.000000      0.000000      2.852798
 AtomData:  id type       cartes_x      cartes_y      cartes_z           fx          fy          fz
             1    0       0.000000      0.000000      0.000000     0.000000   -0.000000    0.000000
             2    0       1.426399      1.426399      1.426399    -0.000000    0.000000    0.000000
 Energy
        -20.186229529590
 PlusStress:  xx          yy          zz          yz          xz          xy
        -2.73253    -2.73253    -2.73253     0.00000    -0.00000     0.00000
END_CFG

BEGIN_CFG
 Size
    2
 Supercell
         2.884496      0.000000      0.000000
         0.000000      2.884496      0.000000
         0.000000      0.000000      2.884496
 AtomData:  id type       cartes_x      cartes_y      cartes_z           fx          fy          fz
             1    0       0.000000      0.000000      0.000000     0.000000   -0.000000   -0.000000
             2    0       1.442248      1.442248      1.442248    -0.000000    0.000000    0.000000
 Energy
        -20.184970632059
 PlusStress:  xx          yy          zz          yz          xz          xy
         2.84496     2.84496     2.84496     0.00000     0.00000     0.00000
END_CFG

BEGIN_CFG
 Size
    2
 Supercell
         2.916194      0.000000      0.000000
         0.000000      2.916194      0.000000
         0.000000      0.000000      2.916194
 AtomData:  id type       cartes_x      cartes_y      cartes_z           fx          fy          fz
             1    0       0.000000      0.000000      0.000000     0.000000   -0.000000    0.000000
             2    0       1.458097      1.458097      1.458097     0.000000    0.000000   -0.000000
 Energy
        -20.344215198783
 PlusStress:  xx          yy          zz          yz          xz          xy
         6.75258     6.75258     6.75258    -0.00000    -0.00000    -0.00000
END_CFG

BEGIN_CFG
 Size
    2
 Supercell
         2.947892      0.000000      0.000000
         0.000000      2.947892      0.000000
         0.000000      0.000000      2.947892
 AtomData:  id type       cartes_x      cartes_y      cartes_z           fx          fy          fz
             1    0       0.000000      0.000000      0.000000     0.000000    0.000000    0.000000
             2    0       1.473946      1.473946      1.473946    -0.000000   -0.000000   -0.000000
 Energy
        -20.616652672426
 PlusStress:  xx          yy          zz          yz          xz          xy
         9.79538     9.79538     9.79538     0.00000    -0.00000     0.00000
END_CFG

BEGIN_CFG
 Size
    2
 Supercell
         2.979589      0.000000      0.000000
         0.000000      2.979589      0.000000
         0.000000      0.000000      2.979589
 AtomData:  id type       cartes_x      cartes_y      cartes_z           fx          fy          fz
             1    0       0.000000      0.000000      0.000000     0.000000   -0.000000   -0.000000
             2    0       1.489794      1.489794      1.489794    -0.000000    0.000000    0.000000
 Energy
        -20.951774709073
 PlusStress:  xx          yy          zz          yz          xz          xy
        10.63714    10.63714    10.63714    -0.00000    -0.00000    -0.00000
END_CFG

BEGIN_CFG
 Size
    2
 Supercell
         3.011287      0.000000      0.000000
         0.000000      3.011287      0.000000
         0.000000      0.000000      3.011287
 AtomData:  id type       cartes_x      cartes_y      cartes_z           fx          fy          fz
             1    0       0.000000      0.000000      0.000000     0.000000   -0.000000   -0.000000
             2    0       1.505643      1.505643      1.505643    -0.000000    0.000000    0.000000
 Energy
        -21.263986340205
 PlusStress:  xx          yy          zz          yz          xz          xy
         8.52659     8.52659     8.52659    -0.00000    -0.00000     0.00000
END_CFG

BEGIN_CFG
 Size
    2
 Supercell
         3.042985      0.000000      0.000000
         0.000000      3.042985      0.000000
         0.000000      0.000000      3.042985
 AtomData:  id type       cartes_x      cartes_y      cartes_z           fx          fy          fz
             1    0       0.000000      0.000000      0.000000    -0.000000    0.000000    0.000000
             2    0       1.521492      1.521492      1.521492    -0.000000    0.000000    0.000000
 Energy
        -21.495872697729
 PlusStress:  xx          yy          zz          yz          xz          xy
         6.42173     6.42173     6.42173     0.00000     0.00000    -0.00000
END_CFG

BEGIN_CFG
 Size
    2
 Supercell
         3.074683      0.000000      0.000000
         0.000000      3.074683      0.000000
         0.000000      0.000000      3.074683
 AtomData:  id type       cartes_x      cartes_y      cartes_z           fx          fy          fz
             1    0       0.000000      0.000000      0.000000    -0.000000    0.000000    0.000000
             2    0       1.537341      1.537341      1.537341     0.000000    0.000000    0.000000
 Energy
        -21.666173257570
 PlusStress:  xx          yy          zz          yz          xz          xy
         4.54027     4.54027     4.54027     0.00000     0.00000     0.00000
END_CFG

BEGIN_CFG
 Size
    2
 Supercell
         3.106380      0.000000      0.000000
         0.000000      3.106380      0.000000
         0.000000      0.000000      3.106380
 AtomData:  id type       cartes_x      cartes_y      cartes_z           fx          fy          fz
             1    0       0.000000      0.000000      0.000000    -0.000000    0.000000    0.000000
             2    0       1.553190      1.553190      1.553190     0.000000    0.000000    0.000000
 Energy
        -21.778079561398
 PlusStress:  xx          yy          zz          yz          xz          xy
         2.75003     2.75003     2.75003     0.00000     0.00000     0.00000
END_CFG

BEGIN_CFG
 Size
    2
 Supercell
         3.138078      0.000000      0.000000
         0.000000      3.138078      0.000000
         0.000000      0.000000      3.138078
 AtomData:  id type       cartes_x      cartes_y      cartes_z           fx          fy          fz
             1    0       0.000000      0.000000      0.000000     0.000000    0.000000    0.000000
             2    0       1.569039      1.569039      1.569039     0.000000    0.000000    0.000000
 Energy
        -21.836140772644
 PlusStress:  xx          yy          zz          yz          xz          xy
         1.07936     1.07936     1.07936    -0.00000     0.00000     0.00000
END_CFG

BEGIN_CFG
 Size
    2
 Supercell
         3.169776      0.000000      0.000000
         0.000000      3.169776      0.000000
         0.000000      0.000000      3.169776
 AtomData:  id type       cartes_x      cartes_y      cartes_z           fx          fy          fz
             1    0       0.000000      0.000000      0.000000     0.000000    0.000000    0.000000
             2    0       1.584888      1.584888      1.584888     0.000000    0.000000    0.000000
 Energy
        -21.844903916099
 PlusStress:  xx          yy          zz          yz          xz          xy
        -0.48513    -0.48513    -0.48513    -0.00000    -0.00000    -0.00000
END_CFG

BEGIN_CFG
 Size
    2
 Supercell
         3.201474      0.000000      0.000000
         0.000000      3.201474      0.000000
         0.000000      0.000000      3.201474
 AtomData:  id type       cartes_x      cartes_y      cartes_z           fx          fy          fz
             1    0       0.000000      0.000000      0.000000     0.000000    0.000000    0.000000
             2    0       1.600737      1.600737      1.600737    -0.000000    0.000000    0.000000
 Energy
        -21.808145370408
 PlusStress:  xx          yy          zz          yz          xz          xy
        -1.96835    -1.96835    -1.96835     0.00000     0.00000     0.00000
END_CFG

BEGIN_CFG
 Size
    2
 Supercell
         3.233171      0.000000      0.000000
         0.000000      3.233171      0.000000
         0.000000      0.000000      3.233171
 AtomData:  id type       cartes_x      cartes_y      cartes_z           fx          fy          fz
             1    0       0.000000      0.000000      0.000000     0.000000    0.000000    0.000000
             2    0       1.616586      1.616586      1.616586     0.000000    0.000000    0.000000
 Energy
        -21.728899451761
 PlusStress:  xx          yy          zz          yz          xz          xy
        -3.38584    -3.38584    -3.38584     0.00000     0.00000     0.00000
END_CFG

BEGIN_CFG
 Size
    2
 Supercell
         3.264869      0.000000      0.000000
         0.000000      3.264869      0.000000
         0.000000      0.000000      3.264869
 AtomData:  id type       cartes_x      cartes_y      cartes_z           fx          fy          fz
             1    0       0.000000      0.000000      0.000000    -0.000000    0.000000    0.000000
             2    0       1.632435      1.632435      1.632435     0.000000    0.000000   -0.000000
 Energy
        -21.609891938229
 PlusStress:  xx          yy          zz          yz          xz          xy
        -4.73620    -4.73620    -4.73620    -0.00000    -0.00000    -0.00000
END_CFG

BEGIN_CFG
 Size
    2
 Supercell
         3.296567      0.000000      0.000000
         0.000000      3.296567      0.000000
         0.000000      0.000000      3.296567
 AtomData:  id type       cartes_x      cartes_y      cartes_z           fx          fy          fz
             1    0       0.000000      0.000000      0.000000     0.000000   -0.000000    0.000000
             2    0       1.648284      1.648284      1.648284    -0.000000    0.000000    0.000000
 Energy
        -21.454055061626
 PlusStress:  xx          yy          zz          yz          xz          xy
        -6.00232    -6.00232    -6.00232    -0.00000     0.00000     0.00000
END_CFG

BEGIN_CFG
 Size
    2
 Supercell
         3.328265      0.000000      0.000000
         0.000000      3.328265      0.000000
         0.000000      0.000000      3.328265
 AtomData:  id type       cartes_x      cartes_y      cartes_z           fx          fy          fz
             1    0       0.000000      0.000000      0.000000    -0.000000    0.000000    0.000000
             2    0       1.664133      1.664133      1.664133     0.000000    0.000000    0.000000
 Energy
        -21.264892079342
 PlusStress:  xx          yy          zz          yz          xz          xy
        -7.15617    -7.15617    -7.15617     0.00000     0.00000    -0.00000
END_CFG

BEGIN_CFG
 Size
    2
 Supercell
         3.359962      0.000000      0.000000
         0.000000      3.359962      0.000000
         0.000000      0.000000      3.359962
 AtomData:  id type       cartes_x      cartes_y      cartes_z           fx          fy          fz
             1    0       0.000000      0.000000      0.000000     0.000000    0.000000    0.000000
             2    0       1.679981      1.679981      1.679981     0.000000    0.000000    0.000000
 Energy
        -21.046732832290
 PlusStress:  xx          yy          zz          yz          xz          xy
        -8.16131    -8.16131    -8.16131    -0.00000     0.00000     0.00000
END_CFG

BEGIN_CFG
 Size
    2
 Supercell
         3.391660      0.000000      0.000000
         0.000000      3.391660      0.000000
         0.000000      0.000000      3.391660
 AtomData:  id type       cartes_x      cartes_y      cartes_z           fx          fy          fz
             1    0       0.000000      0.000000      0.000000     0.000000    0.000000    0.000000
             2    0       1.695830      1.695830      1.695830     0.000000    0.000000    0.000000
 Energy
        -20.804900328752
 PlusStress:  xx          yy          zz          yz          xz          xy
        -8.97364    -8.97364    -8.97364     0.00000     0.00000    -0.00000
END_CFG

BEGIN_CFG
 Size
    2
 Supercell
         3.423358      0.000000      0.000000
         0.000000      3.423358      0.000000
         0.000000      0.000000      3.423358
 AtomData:  id type       cartes_x      cartes_y      cartes_z           fx          fy          fz
             1    0       0.000000      0.000000      0.000000     0.000000    0.000000    0.000000
             2    0       1.711679      1.711679      1.711679    -0.000000   -0.000000   -0.000000
 Energy
        -20.545897204868
 PlusStress:  xx          yy          zz          yz          xz          xy
        -9.54484    -9.54484    -9.54484    -0.00000     0.00000     0.00000
END_CFG

BEGIN_CFG
 Size
    2
 Supercell
         3.455056      0.000000      0.000000
         0.000000      3.455056      0.000000
         0.000000      0.000000      3.455056
 AtomData:  id type       cartes_x      cartes_y      cartes_z           fx          fy          fz
             1    0       0.000000      0.000000      0.000000    -0.000000   -0.000000   -0.000000
             2    0       1.727528      1.727528      1.727528     0.000000    0.000000    0.000000
 Energy
        -20.277276905875
 PlusStress:  xx          yy          zz          yz          xz          xy
        -9.83772    -9.83772    -9.83772     0.00000     0.00000     0.00000
END_CFG

BEGIN_CFG
 Size
    2
 Supercell
         3.486753      0.000000      0.000000
         0.000000      3.486753      0.000000
         0.000000      0.000000      3.486753
 AtomData:  id type       cartes_x      cartes_y      cartes_z           fx          fy          fz
             1    0       0.000000      0.000000      0.000000    -0.000000    0.000000    0.000000
             2    0       1.743377      1.743377      1.743377     0.000000    0.000000    0.000000
 Energy
        -20.006901961632
 PlusStress:  xx          yy          zz          yz          xz          xy
        -9.85940    -9.85940    -9.85940     0.00000     0.00000    -0.00000
END_CFG

