BEGIN_CFG
 Size
    2
 Supercell
         3.159316      0.000000      0.000000
         0.000000      3.159316      0.000000
         0.000000      0.000000      3.159316
 AtomData:  id type       cartes_x      cartes_y      cartes_z           fx          fy          fz
             1    0       0.000001      0.000001      0.000001    -0.000000   -0.000000   -0.000000
             2    0       1.579659      1.579659      1.579659     0.000000    0.000000    0.000000
 Energy
        -21.845782012603
 PlusStress:  xx          yy          zz          yz          xz          xy
         0.00000     0.00000     0.00000    -0.00000    -0.00000    -0.00000
 Feature   from	relaxation_OK
 Feature   min_dist	2.736048
END_CFG

