BEGIN_CFG
 Size
    2
 Supercell
         2.852798      0.000000      0.000000
         0.000000      2.852798      0.000000
         0.000000      0.000000      2.852798
 AtomData:  id type       cartes_x      cartes_y      cartes_z           fx          fy          fz
             1    0       0.000000      0.000000      0.000000     0.000000    0.000000   -0.000000
             2    0       1.426399      1.426399      1.426399    -0.000000   -0.000000    0.000000
 Energy
        -19.623761811935
 PlusStress:  xx          yy          zz          yz          xz          xy
         0.35528     0.35528     0.35528    -0.00000    -0.00000    -0.00000
END_CFG

BEGIN_CFG
 Size
    2
 Supercell
         2.884496      0.000000      0.000000
         0.000000      2.884496      0.000000
         0.000000      0.000000      2.884496
 AtomData:  id type       cartes_x      cartes_y      cartes_z           fx          fy          fz
             1    0       0.000000      0.000000      0.000000     0.000000    0.000000    0.000000
             2    0       1.442248      1.442248      1.442248    -0.000000   -0.000000   -0.000000
 Energy
        -19.753849857555
 PlusStress:  xx          yy          zz          yz          xz          xy
         7.37466     7.37466     7.37466     0.00000    -0.00000     0.00000
END_CFG

BEGIN_CFG
 Size
    2
 Supercell
         2.916194      0.000000      0.000000
         0.000000      2.916194      0.000000
         0.000000      0.000000      2.916194
 AtomData:  id type       cartes_x      cartes_y      cartes_z           fx          fy          fz
             1    0       0.000000      0.000000      0.000000     0.000000    0.000000   -0.000000
             2    0       1.458097      1.458097      1.458097    -0.000000    0.000000    0.000000
 Energy
        -20.059259725770
 PlusStress:  xx          yy          zz          yz          xz          xy
        11.03179    11.03179    11.03179    -0.00000     0.00000     0.00000
END_CFG

BEGIN_CFG
 Size
    2
 Supercell
         2.947892      0.000000      0.000000
         0.000000      2.947892      0.000000
         0.000000      0.000000      2.947892
 AtomData:  id type       cartes_x      cartes_y      cartes_z           fx          fy          fz
             1    0       0.000000      0.000000      0.000000    -0.000000   -0.000000   -0.000000
             2    0       1.473946      1.473946      1.473946     0.000000    0.000000    0.000000
 Energy
        -20.459838475152
 PlusStress:  xx          yy          zz          yz          xz          xy
        13.33928    13.33928    13.33928    -0.00000    -0.00000     0.00000
END_CFG

BEGIN_CFG
 Size
    2
 Supercell
         2.979589      0.000000      0.000000
         0.000000      2.979589      0.000000
         0.000000      0.000000      2.979589
 AtomData:  id type       cartes_x      cartes_y      cartes_z           fx          fy          fz
             1    0       0.000000      0.000000      0.000000     0.000000   -0.000000    0.000000
             2    0       1.489794      1.489794      1.489794    -0.000000    0.000000   -0.000000
 Energy
        -20.890903702718
 PlusStress:  xx          yy          zz          yz          xz          xy
        13.00808    13.00808    13.00808     0.00000     0.00000     0.00000
END_CFG

BEGIN_CFG
 Size
    2
 Supercell
         3.011287      0.000000      0.000000
         0.000000      3.011287      0.000000
         0.000000      0.000000      3.011287
 AtomData:  id type       cartes_x      cartes_y      cartes_z           fx          fy          fz
             1    0       0.000000      0.000000      0.000000     0.000000   -0.000000   -0.000000
             2    0       1.505643      1.505643      1.505643    -0.000000    0.000000    0.000000
 Energy
        -21.255909221368
 PlusStress:  xx          yy          zz          yz          xz          xy
         9.44798     9.44798     9.44798    -0.00000    -0.00000     0.00000
END_CFG

BEGIN_CFG
 Size
    2
 Supercell
         3.042985      0.000000      0.000000
         0.000000      3.042985      0.000000
         0.000000      0.000000      3.042985
 AtomData:  id type       cartes_x      cartes_y      cartes_z           fx          fy          fz
             1    0       0.000000      0.000000      0.000000     0.000000    0.000000    0.000000
             2    0       1.521492      1.521492      1.521492    -0.000000    0.000000    0.000000
 Energy
        -21.502653218742
 PlusStress:  xx          yy          zz          yz          xz          xy
         6.59429     6.59429     6.59429     0.00000     0.00000    -0.00000
END_CFG

BEGIN_CFG
 Size
    2
 Supercell
         3.074683      0.000000      0.000000
         0.000000      3.074683      0.000000
         0.000000      0.000000      3.074683
 AtomData:  id type       cartes_x      cartes_y      cartes_z           fx          fy          fz
             1    0       0.000000      0.000000      0.000000     0.000000    0.000000    0.000000
             2    0       1.537341      1.537341      1.537341    -0.000000   -0.000000    0.000000
 Energy
        -21.673220601836
 PlusStress:  xx          yy          zz          yz          xz          xy
         4.43691     4.43691     4.43691     0.00000     0.00000     0.00000
END_CFG

BEGIN_CFG
 Size
    2
 Supercell
         3.106380      0.000000      0.000000
         0.000000      3.106380      0.000000
         0.000000      0.000000      3.106380
 AtomData:  id type       cartes_x      cartes_y      cartes_z           fx          fy          fz
             1    0       0.000000      0.000000      0.000000     0.000000   -0.000000    0.000000
             2    0       1.553190      1.553190      1.553190    -0.000000    0.000000    0.000000
 Energy
        -21.780958102037
 PlusStress:  xx          yy          zz          yz          xz          xy
         2.60999     2.60999     2.60999     0.00000     0.00000     0.00000
END_CFG

BEGIN_CFG
 Size
    2
 Supercell
         3.138078      0.000000      0.000000
         0.000000      3.138078      0.000000
         0.000000      0.000000      3.138078
 AtomData:  id type       cartes_x      cartes_y      cartes_z           fx          fy          fz
             1    0       0.000000      0.000000      0.000000    -0.000000    0.000000    0.000000
             2    0       1.569039      1.569039      1.569039     0.000000   -0.000000   -0.000000
 Energy
        -21.835651092917
 PlusStress:  xx          yy          zz          yz          xz          xy
         1.00609     1.00609     1.00609     0.00000    -0.00000    -0.00000
END_CFG

BEGIN_CFG
 Size
    2
 Supercell
         3.169776      0.000000      0.000000
         0.000000      3.169776      0.000000
         0.000000      0.000000      3.169776
 AtomData:  id type       cartes_x      cartes_y      cartes_z           fx          fy          fz
             1    0       0.000000      0.000000      0.000000    -0.000000   -0.000000    0.000000
             2    0       1.584888      1.584888      1.584888     0.000000    0.000000    0.000000
 Energy
        -21.843372787762
 PlusStress:  xx          yy          zz          yz          xz          xy
        -0.48541    -0.48541    -0.48541    -0.00000    -0.00000     0.00000
END_CFG

BEGIN_CFG
 Size
    2
 Supercell
         3.201474      0.000000      0.000000
         0.000000      3.201474      0.000000
         0.000000      0.000000      3.201474
 AtomData:  id type       cartes_x      cartes_y      cartes_z           fx          fy          fz
             1    0       0.000000      0.000000      0.000000     0.000000    0.000000   -0.000000
             2    0       1.600737      1.600737      1.600737    -0.000000   -0.000000    0.000000
 Energy
        -21.807176708068
 PlusStress:  xx          yy          zz          yz          xz          xy
        -1.93929    -1.93929    -1.93929     0.00000     0.00000     0.00000
END_CFG

BEGIN_CFG
 Size
    2
 Supercell
         3.233171      0.000000      0.000000
         0.000000      3.233171      0.000000
         0.000000      0.000000      3.233171
 AtomData:  id type       cartes_x      cartes_y      cartes_z           fx          fy          fz
             1    0       0.000000      0.000000      0.000000     0.000000    0.000000    0.000000
             2    0       1.616586      1.616586      1.616586     0.000000   -0.000000   -0.000000
 Energy
        -21.728598388439
 PlusStress:  xx          yy          zz          yz          xz          xy
        -3.37631    -3.37631    -3.37631     0.00000    -0.00000    -0.00000
END_CFG

BEGIN_CFG
 Size
    2
 Supercell
         3.264869      0.000000      0.000000
         0.000000      3.264869      0.000000
         0.000000      0.000000      3.264869
 AtomData:  id type       cartes_x      cartes_y      cartes_z           fx          fy          fz
             1    0       0.000000      0.000000      0.000000    -0.000000   -0.000000   -0.000000
             2    0       1.632435      1.632435      1.632435     0.000000    0.000000    0.000000
 Energy
        -21.609287550851
 PlusStress:  xx          yy          zz          yz          xz          xy
        -4.76621    -4.76621    -4.76621    -0.00000    -0.00000    -0.00000
END_CFG

BEGIN_CFG
 Size
    2
 Supercell
         3.296567      0.000000      0.000000
         0.000000      3.296567      0.000000
         0.000000      0.000000      3.296567
 AtomData:  id type       cartes_x      cartes_y      cartes_z           fx          fy          fz
             1    0       0.000000      0.000000      0.000000    -0.000000   -0.000000   -0.000000
             2    0       1.648284      1.648284      1.648284     0.000000    0.000000    0.000000
 Energy
        -21.452275754904
 PlusStress:  xx          yy          zz          yz          xz          xy
        -6.04460    -6.04460    -6.04460     0.00000     0.00000    -0.00000
END_CFG

BEGIN_CFG
 Size
    2
 Supercell
         3.328265      0.000000      0.000000
         0.000000      3.328265      0.000000
         0.000000      0.000000      3.328265
 AtomData:  id type       cartes_x      cartes_y      cartes_z           fx          fy          fz
             1    0       0.000000      0.000000      0.000000     0.000000    0.000000    0.000000
             2    0       1.664133      1.664133      1.664133    -0.000000    0.000000    0.000000
 Energy
        -21.262573287406
 PlusStress:  xx          yy          zz          yz          xz          xy
        -7.13548    -7.13548    -7.13548    -0.00000     0.00000     0.00000
END_CFG

BEGIN_CFG
 Size
    2
 Supercell
         3.359962      0.000000      0.000000
         0.000000      3.359962      0.000000
         0.000000      0.000000      3.359962
 AtomData:  id type       cartes_x      cartes_y      cartes_z           fx          fy          fz
             1    0       0.000000      0.000000      0.000000     0.000000    0.000000    0.000000
             2    0       1.679981      1.679981      1.679981    -0.000000   -0.000000   -0.000000
 Energy
        -21.047135666081
 PlusStress:  xx          yy          zz          yz          xz          xy
        -7.97157    -7.97157    -7.97157    -0.00000    -0.00000    -0.00000
END_CFG

BEGIN_CFG
 Size
    2
 Supercell
         3.391660      0.000000      0.000000
         0.000000      3.391660      0.000000
         0.000000      0.000000      3.391660
 AtomData:  id type       cartes_x      cartes_y      cartes_z           fx          fy          fz
             1    0       0.000000      0.000000      0.000000     0.000000    0.000000    0.000000
             2    0       1.695830      1.695830      1.695830    -0.000000    0.000000    0.000000
 Energy
        -20.814277947357
 PlusStress:  xx          yy          zz          yz          xz          xy
        -8.51081    -8.51081    -8.51081    -0.00000     0.00000     0.00000
END_CFG

BEGIN_CFG
 Size
    2
 Supercell
         3.423358      0.000000      0.000000
         0.000000      3.423358      0.000000
         0.000000      0.000000      3.423358
 AtomData:  id type       cartes_x      cartes_y      cartes_z           fx          fy          fz
             1    0       0.000000      0.000000      0.000000     0.000000    0.000000    0.000000
             2    0       1.711679      1.711679      1.711679    -0.000000   -0.000000   -0.000000
 Energy
        -20.572750450246
 PlusStress:  xx          yy          zz          yz          xz          xy
        -8.75184    -8.75184    -8.75184     0.00000     0.00000     0.00000
END_CFG

BEGIN_CFG
 Size
    2
 Supercell
         3.455056      0.000000      0.000000
         0.000000      3.455056      0.000000
         0.000000      0.000000      3.455056
 AtomData:  id type       cartes_x      cartes_y      cartes_z           fx          fy          fz
             1    0       0.000000      0.000000      0.000000    -0.000000   -0.000000   -0.000000
             2    0       1.727528      1.727528      1.727528     0.000000    0.000000    0.000000
 Energy
        -20.330286756109
 PlusStress:  xx          yy          zz          yz          xz          xy
        -8.75644    -8.75644    -8.75644     0.00000     0.00000     0.00000
END_CFG

BEGIN_CFG
 Size
    2
 Supercell
         3.486753      0.000000      0.000000
         0.000000      3.486753      0.000000
         0.000000      0.000000      3.486753
 AtomData:  id type       cartes_x      cartes_y      cartes_z           fx          fy          fz
             1    0       0.000000      0.000000      0.000000     0.000000    0.000000    0.000000
             2    0       1.743377      1.743377      1.743377     0.000000    0.000000    0.000000
 Energy
        -20.091446060410
 PlusStress:  xx          yy          zz          yz          xz          xy
        -8.68799    -8.68799    -8.68799     0.00000     0.00000    -0.00000
END_CFG

