BEGIN_CFG
 Size
    2
 Supercell
         3.222360      0.000000      0.000000
         0.000000      3.159180      0.000000
         0.000000      0.000000      3.159180
 AtomData:  id type       cartes_x      cartes_y      cartes_z           fx          fy          fz
             1    0       0.000000      0.000000      0.000000     0.000000    0.000000   -0.000000
             2    0       1.611180      1.579590      1.579590    -0.000000   -0.000000    0.000000
 Energy
        -21.829391490000
 PlusStress:  xx          yy          zz          yz          xz          xy
        -1.77726    -0.60103    -0.60103    -0.00000     0.00000     0.00000
 Feature   EFS_by	VASP
END_CFG

