BEGIN_CFG
 Size
    2
 Supercell
         3.096000      0.000000      0.000000
         0.000000      3.159180      0.000000
         0.000000      0.000000      3.159180
 AtomData:  id type       cartes_x      cartes_y      cartes_z           fx          fy          fz
             1    0       0.000000      0.000000      0.000000    -0.000000   -0.000000   -0.000000
             2    0       1.548000      1.579590      1.579590     0.000000    0.000000    0.000000
 Energy
        -21.827460070000
 PlusStress:  xx          yy          zz          yz          xz          xy
         1.93729     0.61407     0.61407     0.00000     0.00000    -0.00000
 Feature   EFS_by	VASP
END_CFG

