BEGIN_CFG
 Size
    2
 Supercell
         3.159180      0.031592      0.000000
         0.031592      3.159180      0.000000
         0.000000      0.000000      3.159180
 AtomData:  id type       cartes_x      cartes_y      cartes_z           fx          fy          fz
             1    0       0.000000      0.000000      0.000000     0.000015    0.000015   -0.000000
             2    0       1.595390      1.595390      1.579590    -0.000015   -0.000015    0.000000
 Energy
        -21.843315510000
 PlusStress:  xx          yy          zz          yz          xz          xy
        -0.00145    -0.00145     0.00780     0.00000    -0.00000    -0.37326
 Feature   EFS_by	VASP
END_CFG

