BEGIN_CFG
 Size
    2
 Supercell
         3.159180     -0.031592      0.000000
        -0.031592      3.159180      0.000000
         0.000000      0.000000      3.159180
 AtomData:  id type       cartes_x      cartes_y      cartes_z           fx          fy          fz
             1    0       0.000000      0.000000      0.000000    -0.000019   -0.000019   -0.000000
             2    0       1.563790      1.563790      1.579590     0.000019    0.000019    0.000000
 Energy
        -21.843315410000
 PlusStress:  xx          yy          zz          yz          xz          xy
        -0.00028    -0.00028     0.00896     0.00000     0.00000     0.37329
 Feature   EFS_by	VASP
END_CFG

