BEGIN_CFG
 Size
    2
 Supercell
         2.852798      0.000000      0.000000
         0.000000      2.852798      0.000000
         0.000000      0.000000      2.852798
 AtomData:  id type       cartes_x      cartes_y      cartes_z           fx          fy          fz
             1    0       0.000000      0.000000      0.000000    -0.000000    0.000000   -0.000000
             2    0       1.426399      1.426399      1.426399     0.000000   -0.000000    0.000000
 Energy
        -19.337388198953
 PlusStress:  xx          yy          zz          yz          xz          xy
         9.59779     9.59779     9.59779     0.00000    -0.00000     0.00000
END_CFG

BEGIN_CFG
 Size
    2
 Supercell
         2.884496      0.000000      0.000000
         0.000000      2.884496      0.000000
         0.000000      0.000000      2.884496
 AtomData:  id type       cartes_x      cartes_y      cartes_z           fx          fy          fz
             1    0       0.000000      0.000000      0.000000     0.000000   -0.000000   -0.000000
             2    0       1.442248      1.442248      1.442248    -0.000000    0.000000    0.000000
 Energy
        -19.712908001021
 PlusStress:  xx          yy          zz          yz          xz          xy
        12.60071    12.60071    12.60071    -0.00000    -0.00000    -0.00000
END_CFG

BEGIN_CFG
 Size
    2
 Supercell
         2.916194      0.000000      0.000000
         0.000000      2.916194      0.000000
         0.000000      0.000000      2.916194
 AtomData:  id type       cartes_x      cartes_y      cartes_z           fx          fy          fz
             1    0       0.000000      0.000000      0.000000    -0.000000   -0.000000   -0.000000
             2    0       1.458097      1.458097      1.458097     0.000000    0.000000    0.000000
 Energy
        -20.143838864355
 PlusStress:  xx          yy          zz          yz          xz          xy
        13.37763    13.37763    13.37763     0.00000    -0.00000    -0.00000
END_CFG

BEGIN_CFG
 Size
    2
 Supercell
         2.947892      0.000000      0.000000
         0.000000      2.947892      0.000000
         0.000000      0.000000      2.947892
 AtomData:  id type       cartes_x      cartes_y      cartes_z           fx          fy          fz
             1    0       0.000000      0.000000      0.000000     0.000000    0.000000    0.000000
             2    0       1.473946      1.473946      1.473946    -0.000000   -0.000000   -0.000000
 Energy
        -20.568512217872
 PlusStress:  xx          yy          zz          yz          xz          xy
        12.61195    12.61195    12.61195    -0.00000    -0.00000    -0.00000
END_CFG

BEGIN_CFG
 Size
    2
 Supercell
         2.979589      0.000000      0.000000
         0.000000      2.979589      0.000000
         0.000000      0.000000      2.979589
 AtomData:  id type       cartes_x      cartes_y      cartes_z           fx          fy          fz
             1    0       0.000000      0.000000      0.000000     0.000000   -0.000000   -0.000000
             2    0       1.489794      1.489794      1.489794    -0.000000    0.000000    0.000000
 Energy
        -20.948248364347
 PlusStress:  xx          yy          zz          yz          xz          xy
        10.93404    10.93404    10.93404    -0.00000     0.00000     0.00000
END_CFG

BEGIN_CFG
 Size
    2
 Supercell
         3.011287      0.000000      0.000000
         0.000000      3.011287      0.000000
         0.000000      0.000000      3.011287
 AtomData:  id type       cartes_x      cartes_y      cartes_z           fx          fy          fz
             1    0       0.000000      0.000000      0.000000    -0.000000    0.000000    0.000000
             2    0       1.505643      1.505643      1.505643     0.000000   -0.000000   -0.000000
 Energy
        -21.258086000746
 PlusStress:  xx          yy          zz          yz          xz          xy
         8.39774     8.39774     8.39774     0.00000    -0.00000     0.00000
END_CFG

BEGIN_CFG
 Size
    2
 Supercell
         3.042985      0.000000      0.000000
         0.000000      3.042985      0.000000
         0.000000      0.000000      3.042985
 AtomData:  id type       cartes_x      cartes_y      cartes_z           fx          fy          fz
             1    0       0.000000      0.000000      0.000000     0.000000    0.000000    0.000000
             2    0       1.521492      1.521492      1.521492     0.000000    0.000000    0.000000
 Energy
        -21.489288902243
 PlusStress:  xx          yy          zz          yz          xz          xy
         6.45957     6.45957     6.45957     0.00000     0.00000    -0.00000
END_CFG

BEGIN_CFG
 Size
    2
 Supercell
         3.074683      0.000000      0.000000
         0.000000      3.074683      0.000000
         0.000000      0.000000      3.074683
 AtomData:  id type       cartes_x      cartes_y      cartes_z           fx          fy          fz
             1    0       0.000000      0.000000      0.000000    -0.000000   -0.000000   -0.000000
             2    0       1.537341      1.537341      1.537341     0.000000    0.000000    0.000000
 Energy
        -21.661721811128
 PlusStress:  xx          yy          zz          yz          xz          xy
         4.62619     4.62619     4.62619     0.00000     0.00000     0.00000
END_CFG

BEGIN_CFG
 Size
    2
 Supercell
         3.106380      0.000000      0.000000
         0.000000      3.106380      0.000000
         0.000000      0.000000      3.106380
 AtomData:  id type       cartes_x      cartes_y      cartes_z           fx          fy          fz
             1    0       0.000000      0.000000      0.000000     0.000000    0.000000   -0.000000
             2    0       1.553190      1.553190      1.553190    -0.000000    0.000000    0.000000
 Energy
        -21.776085768043
 PlusStress:  xx          yy          zz          yz          xz          xy
         2.81523     2.81523     2.81523    -0.00000    -0.00000    -0.00000
END_CFG

BEGIN_CFG
 Size
    2
 Supercell
         3.138078      0.000000      0.000000
         0.000000      3.138078      0.000000
         0.000000      0.000000      3.138078
 AtomData:  id type       cartes_x      cartes_y      cartes_z           fx          fy          fz
             1    0       0.000000      0.000000      0.000000    -0.000000    0.000000    0.000000
             2    0       1.569039      1.569039      1.569039     0.000000    0.000000    0.000000
 Energy
        -21.835415775620
 PlusStress:  xx          yy          zz          yz          xz          xy
         1.09715     1.09715     1.09715     0.00000    -0.00000     0.00000
END_CFG

BEGIN_CFG
 Size
    2
 Supercell
         3.169776      0.000000      0.000000
         0.000000      3.169776      0.000000
         0.000000      0.000000      3.169776
 AtomData:  id type       cartes_x      cartes_y      cartes_z           fx          fy          fz
             1    0       0.000000      0.000000      0.000000     0.000000    0.000000    0.000000
             2    0       1.584888      1.584888      1.584888     0.000000   -0.000000   -0.000000
 Energy
        -21.844190565659
 PlusStress:  xx          yy          zz          yz          xz          xy
        -0.49656    -0.49656    -0.49656    -0.00000    -0.00000    -0.00000
END_CFG

BEGIN_CFG
 Size
    2
 Supercell
         3.201474      0.000000      0.000000
         0.000000      3.201474      0.000000
         0.000000      0.000000      3.201474
 AtomData:  id type       cartes_x      cartes_y      cartes_z           fx          fy          fz
             1    0       0.000000      0.000000      0.000000     0.000000    0.000000    0.000000
             2    0       1.600737      1.600737      1.600737    -0.000000   -0.000000    0.000000
 Energy
        -21.807100902176
 PlusStress:  xx          yy          zz          yz          xz          xy
        -1.97401    -1.97401    -1.97401     0.00000     0.00000     0.00000
END_CFG

BEGIN_CFG
 Size
    2
 Supercell
         3.233171      0.000000      0.000000
         0.000000      3.233171      0.000000
         0.000000      0.000000      3.233171
 AtomData:  id type       cartes_x      cartes_y      cartes_z           fx          fy          fz
             1    0       0.000000      0.000000      0.000000    -0.000000   -0.000000    0.000000
             2    0       1.616586      1.616586      1.616586     0.000000    0.000000    0.000000
 Energy
        -21.727978079298
 PlusStress:  xx          yy          zz          yz          xz          xy
        -3.37333    -3.37333    -3.37333     0.00000     0.00000     0.00000
END_CFG

BEGIN_CFG
 Size
    2
 Supercell
         3.264869      0.000000      0.000000
         0.000000      3.264869      0.000000
         0.000000      0.000000      3.264869
 AtomData:  id type       cartes_x      cartes_y      cartes_z           fx          fy          fz
             1    0       0.000000      0.000000      0.000000    -0.000000    0.000000    0.000000
             2    0       1.632435      1.632435      1.632435     0.000000    0.000000    0.000000
 Energy
        -21.609250713466
 PlusStress:  xx          yy          zz          yz          xz          xy
        -4.73890    -4.73890    -4.73890    -0.00000    -0.00000    -0.00000
END_CFG

BEGIN_CFG
 Size
    2
 Supercell
         3.296567      0.000000      0.000000
         0.000000      3.296567      0.000000
         0.000000      0.000000      3.296567
 AtomData:  id type       cartes_x      cartes_y      cartes_z           fx          fy          fz
             1    0       0.000000      0.000000      0.000000    -0.000000    0.000000   -0.000000
             2    0       1.648284      1.648284      1.648284     0.000000    0.000000    0.000000
 Energy
        -21.452328546200
 PlusStress:  xx          yy          zz          yz          xz          xy
        -6.08608    -6.08608    -6.08608     0.00000     0.00000     0.00000
END_CFG

BEGIN_CFG
 Size
    2
 Supercell
         3.328265      0.000000      0.000000
         0.000000      3.328265      0.000000
         0.000000      0.000000      3.328265
 AtomData:  id type       cartes_x      cartes_y      cartes_z           fx          fy          fz
             1    0       0.000000      0.000000      0.000000     0.000000    0.000000    0.000000
             2    0       1.664133      1.664133      1.664133     0.000000    0.000000    0.000000
 Energy
        -21.258955490361
 PlusStress:  xx          yy          zz          yz          xz          xy
        -7.36893    -7.36893    -7.36893    -0.00000    -0.00000     0.00000
END_CFG

BEGIN_CFG
 Size
    2
 Supercell
         3.359962      0.000000      0.000000
         0.000000      3.359962      0.000000
         0.000000      0.000000      3.359962
 AtomData:  id type       cartes_x      cartes_y      cartes_z           fx          fy          fz
             1    0       0.000000      0.000000      0.000000     0.000000    0.000000    0.000000
             2    0       1.679981      1.679981      1.679981     0.000000   -0.000000   -0.000000
 Energy
        -21.033175814564
 PlusStress:  xx          yy          zz          yz          xz          xy
        -8.46964    -8.46964    -8.46964     0.00000     0.00000    -0.00000
END_CFG

BEGIN_CFG
 Size
    2
 Supercell
         3.391660      0.000000      0.000000
         0.000000      3.391660      0.000000
         0.000000      0.000000      3.391660
 AtomData:  id type       cartes_x      cartes_y      cartes_z           fx          fy          fz
             1    0       0.000000      0.000000      0.000000    -0.000000    0.000000    0.000000
             2    0       1.695830      1.695830      1.695830     0.000000    0.000000    0.000000
 Energy
        -20.782933486100
 PlusStress:  xx          yy          zz          yz          xz          xy
        -9.22850    -9.22850    -9.22850     0.00000     0.00000    -0.00000
END_CFG

BEGIN_CFG
 Size
    2
 Supercell
         3.423358      0.000000      0.000000
         0.000000      3.423358      0.000000
         0.000000      0.000000      3.423358
 AtomData:  id type       cartes_x      cartes_y      cartes_z           fx          fy          fz
             1    0       0.000000      0.000000      0.000000     0.000000   -0.000000    0.000000
             2    0       1.711679      1.711679      1.711679    -0.000000    0.000000   -0.000000
 Energy
        -20.520151546296
 PlusStress:  xx          yy          zz          yz          xz          xy
        -9.52322    -9.52322    -9.52322     0.00000     0.00000     0.00000
END_CFG

BEGIN_CFG
 Size
    2
 Supercell
         3.455056      0.000000      0.000000
         0.000000      3.455056      0.000000
         0.000000      0.000000      3.455056
 AtomData:  id type       cartes_x      cartes_y      cartes_z           fx          fy          fz
             1    0       0.000000      0.000000      0.000000    -0.000000    0.000000    0.000000
             2    0       1.727528      1.727528      1.727528     0.000000   -0.000000   -0.000000
 Energy
        -20.257873744303
 PlusStress:  xx          yy          zz          yz          xz          xy
        -9.39485    -9.39485    -9.39485     0.00000     0.00000     0.00000
END_CFG

BEGIN_CFG
 Size
    2
 Supercell
         3.486753      0.000000      0.000000
         0.000000      3.486753      0.000000
         0.000000      0.000000      3.486753
 AtomData:  id type       cartes_x      cartes_y      cartes_z           fx          fy          fz
             1    0       0.000000      0.000000      0.000000     0.000000    0.000000    0.000000
             2    0       1.743377      1.743377      1.743377     0.000000    0.000000    0.000000
 Energy
        -20.003743674027
 PlusStress:  xx          yy          zz          yz          xz          xy
        -9.19569    -9.19569    -9.19569    -0.00000     0.00000     0.00000
END_CFG

