BEGIN_CFG
 Size
    2
 Supercell
         3.159316     -0.031593      0.000000
        -0.031593      3.159316      0.000000
         0.000000      0.000000      3.159316
 AtomData:  id type       cartes_x      cartes_y      cartes_z
             1    0       0.000001      0.000001      0.000001
             2    0       1.563862      1.563862      1.579659
 Feature   from	relaxation_OK
 Feature   min_dist	2.736048
END_CFG

