BEGIN_CFG
 Size
    2
 Supercell
         3.096004      0.000000      0.000000
         0.000000      3.159188      0.000000
         0.000000      0.000000      3.159188
 AtomData:  id type       cartes_x      cartes_y      cartes_z           fx          fy          fz
             1    0       0.000001      0.000001      0.000001    -0.000000    0.000000    0.000000
             2    0       1.548003      1.579595      1.579595     0.000000   -0.000000   -0.000000
 Energy
        -21.828998436452
 PlusStress:  xx          yy          zz          yz          xz          xy
         1.90020     0.63194     0.63194     0.00000    -0.00000    -0.00000
 Feature   from	relaxation_OK
 Feature   min_dist	2.735937
END_CFG

