BEGIN_CFG
 Size
    2
 Supercell
         3.159188      0.031592      0.000000
         0.031592      3.159188      0.000000
         0.000000      0.000000      3.159188
 AtomData:  id type       cartes_x      cartes_y      cartes_z
             1    0       0.000001      0.000001      0.000001
             2    0       1.595391      1.595391      1.579595
 Feature   from	relaxation_OK
 Feature   min_dist	2.735937
END_CFG

